! TOUCHSTONE file generated by CST MICROWAVE STUDIO
! Date and time: Tue Mar 30 18:00:09 2021
! Project name: 700_960_MHz_IFA_première_version.cst
! Parameters = {n=5; b=3; a=0; L20007=15; C20006=2.1; L20005=15; C20004=6.366; L20003=14.34; C20002=3.969; L20001=3.542; L40004=15.92; C40003=5.736; L40002=9.923; C40001=1.417; L20004=15.92; C20003=5.736; L20002=9.923; C20001=1.417; W=22; L=56.58; Wg=140; Lg=175}
! Header version: 2018
! Port assignment regex: !\s*Touchstone port\s*([0-9]+)\s*=\s*(CST MWS port|CST DS port)\s*([0-9]+|Zmin|Zmax)\s*\(\"(.*)\"\)(\s*mode\s*([0-9]+))?.*
! Touchstone port assignment:
! Touchstone port 1 = CST MWS port 1 ("")
# GHz Z MA R 1
0                        0.01238        0.010115
0.002                    0.28737          87.529
0.004                   0.574351         88.7605
0.006                   0.861429         89.1701
0.008                    1.14857          89.374
0.01                     1.43576         89.4954
0.012                      1.723         89.5756
0.014                    2.01028         89.6323
0.016                    2.29764         89.6742
0.018                    2.58506         89.7064
0.02                      2.8726         89.7316
0.022                    3.16022         89.7519
0.024                    3.44792         89.7684
0.026                    3.73575         89.7819
0.028                    4.02371         89.7933
0.03                     4.31178         89.8027
0.032                    4.60001         89.8107
0.034                    4.88838         89.8174
0.036                    5.17691          89.823
0.038                    5.46561         89.8278
0.04                     5.75447         89.8318
0.042                    6.04354         89.8352
0.044                    6.33278          89.838
0.046                    6.62224         89.8403
0.048                     6.9119         89.8422
0.05                      7.2018         89.8436
0.052                    7.49192         89.8447
0.054                    7.78229         89.8455
0.056                     8.0729          89.846
0.058                    8.36378         89.8462
0.06                     8.65491         89.8462
0.062                    8.94634         89.8459
0.064                    9.23802         89.8455
0.066                    9.53003         89.8448
0.068                    9.82233          89.844
0.07                     10.1149          89.843
0.072                    10.4079         89.8418
0.074                    10.7011         89.8405
0.076                    10.9948         89.8391
0.078                    11.2887         89.8376
0.08                      11.583         89.8359
0.082                    11.8777         89.8341
0.084                    12.1728         89.8322
0.086                    12.4683         89.8302
0.088                    12.7641         89.8281
0.09                     13.0604         89.8259
0.092                     13.357         89.8237
0.094                    13.6541         89.8214
0.096                    13.9517          89.819
0.098                    14.2497         89.8165
0.1                      14.5481          89.814
0.102                     14.847         89.8114
0.104                    15.1464         89.8087
0.106                    15.4462          89.806
0.108                    15.7466         89.8033
0.11                     16.0475         89.8005
0.112                    16.3489         89.7977
0.114                    16.6508         89.7948
0.116                    16.9532          89.792
0.118                    17.2562         89.7891
0.12                     17.5598         89.7861
0.122                    17.8639         89.7832
0.124                    18.1686         89.7802
0.126                    18.4739         89.7772
0.128                    18.7799         89.7743
0.13                     19.0864         89.7713
0.132                    19.3936         89.7683
0.134                    19.7014         89.7653
0.136                    20.0099         89.7623
0.138                     20.319         89.7593
0.14                     20.6288         89.7564
0.142                    20.9394         89.7534
0.144                    21.2506         89.7504
0.146                    21.5626         89.7475
0.148                    21.8753         89.7446
0.15                     22.1887         89.7417
0.152                    22.5029         89.7388
0.154                    22.8179         89.7359
0.156                    23.1337         89.7331
0.158                    23.4503         89.7303
0.16                     23.7678         89.7275
0.162                    24.0861         89.7247
0.164                    24.4052          89.722
0.166                    24.7252         89.7193
0.168                    25.0461         89.7166
0.17                      25.368          89.714
0.172                    25.6907         89.7113
0.174                    26.0144         89.7087
0.176                    26.3391         89.7062
0.178                    26.6647         89.7036
0.18                     26.9914         89.7011
0.182                     27.319         89.6986
0.184                    27.6478         89.6961
0.186                    27.9775         89.6936
0.188                    28.3084         89.6912
0.19                     28.6403         89.6888
0.192                    28.9734         89.6864
0.194                    29.3076          89.684
0.196                     29.643         89.6816
0.198                    29.9796         89.6792
0.2                      30.3174         89.6768
0.202                    30.6563         89.6744
0.204                    30.9966          89.672
0.206                    31.3381         89.6696
0.208                     31.681         89.6672
0.21                     32.0251         89.6648
0.212                    32.3706         89.6623
0.214                    32.7175         89.6598
0.216                    33.0657         89.6573
0.218                    33.4154         89.6548
0.22                     33.7665         89.6522
0.222                    34.1191         89.6496
0.224                    34.4732         89.6469
0.226                    34.8288         89.6442
0.228                    35.1859         89.6414
0.23                     35.5446         89.6386
0.232                     35.905         89.6357
0.234                    36.2669         89.6327
0.236                    36.6305         89.6296
0.238                    36.9958         89.6264
0.24                     37.3628         89.6232
0.242                    37.7315         89.6199
0.244                     38.102         89.6164
0.246                    38.4743         89.6128
0.248                    38.8485         89.6092
0.25                     39.2245         89.6054
0.252                    39.6024         89.6015
0.254                    39.9822         89.5974
0.256                    40.3639         89.5933
0.258                    40.7477         89.5889
0.26                     41.1335         89.5845
0.262                    41.5213         89.5799
0.264                    41.9112         89.5751
0.266                    42.3032         89.5702
0.268                    42.6974         89.5651
0.27                     43.0937         89.5598
0.272                    43.4923         89.5544
0.274                    43.8932         89.5488
0.276                    44.2963          89.543
0.278                    44.7018          89.537
0.28                     45.1096         89.5308
0.282                    45.5199         89.5245
0.284                    45.9326         89.5179
0.286                    46.3478         89.5112
0.288                    46.7656         89.5042
0.29                     47.1859          89.497
0.292                    47.6089         89.4897
0.294                    48.0345         89.4821
0.296                    48.4628         89.4743
0.298                     48.894         89.4662
0.3                      49.3279          89.458
0.302                    49.7647         89.4495
0.304                    50.2044         89.4408
0.306                     50.647         89.4319
0.308                    51.0927         89.4227
0.31                     51.5414         89.4133
0.312                    51.9933         89.4037
0.314                    52.4484         89.3938
0.316                    52.9067         89.3837
0.318                    53.3684         89.3733
0.32                     53.8334         89.3627
0.322                    54.3018         89.3518
0.324                    54.7738         89.3407
0.326                    55.2493         89.3292
0.328                    55.7285         89.3176
0.33                     56.2114         89.3056
0.332                    56.6982         89.2934
0.334                    57.1888         89.2809
0.336                    57.6833         89.2681
0.338                    58.1819          89.255
0.34                     58.6847         89.2416
0.342                    59.1917         89.2279
0.344                     59.703         89.2139
0.346                    60.2187         89.1995
0.348                    60.7389         89.1848
0.35                     61.2637         89.1697
0.352                    61.7933         89.1543
0.354                    62.3276         89.1385
0.356                    62.8669         89.1223
0.358                    63.4113         89.1057
0.36                     63.9608         89.0887
0.362                    64.5156         89.0712
0.364                    65.0759         89.0533
0.366                    65.6417         89.0349
0.368                    66.2132          89.016
0.37                     66.7904         88.9966
0.372                    67.3737         88.9766
0.374                     67.963          88.956
0.376                    68.5586         88.9348
0.378                    69.1607          88.913
0.38                     69.7693         88.8905
0.382                    70.3846         88.8673
0.384                    71.0068         88.8434
0.386                    71.6362         88.8187
0.388                    72.2727         88.7932
0.39                     72.9167         88.7668
0.392                    73.5683         88.7396
0.394                    74.2278         88.7113
0.396                    74.8952         88.6821
0.398                    75.5709         88.6519
0.4                       76.255         88.6205
0.402                    76.9478          88.588
0.404                    77.6493         88.5542
0.406                    78.3601         88.5192
0.408                      79.08         88.4829
0.41                     79.8096         88.4451
0.412                     80.549         88.4059
0.414                    81.2984          88.365
0.416                    82.0581         88.3226
0.418                    82.8283         88.2785
0.42                     83.6094         88.2325
0.422                    84.4015         88.1847
0.424                     85.205          88.135
0.426                    86.0202         88.0831
0.428                    86.8473         88.0292
0.43                     87.6867         87.9729
0.432                    88.5385         87.9143
0.434                    89.4034         87.8533
0.436                    90.2812         87.7897
0.438                    91.1726         87.7234
0.44                     92.0778         87.6543
0.442                    92.9972         87.5823
0.444                     93.931         87.5072
0.446                    94.8796          87.429
0.448                    95.8434         87.3474
0.45                     96.8227         87.2624
0.452                    97.8179         87.1738
0.454                    98.8293         87.0815
0.456                    99.8575         86.9853
0.458                    100.902          86.885
0.46                     101.965         86.7805
0.462                    103.045         86.6717
0.464                    104.144         86.5583
0.466                     105.26         86.4402
0.468                    106.396         86.3173
0.47                     107.551         86.1892
0.472                    108.726         86.0559
0.474                    109.921         85.9172
0.476                    111.137         85.7727
0.478                    112.373         85.6225
0.48                     113.631         85.4661
0.482                     114.91         85.3035
0.484                    116.212         85.1344
0.486                    117.536         84.9585
0.488                    118.883         84.7757
0.49                     120.253         84.5857
0.492                    121.647         84.3883
0.494                    123.064         84.1832
0.496                    124.506         83.9701
0.498                    125.973         83.7489
0.5                      127.464         83.5192
0.502                    128.981         83.2809
0.504                    130.523         83.0335
0.506                    132.091         82.7769
0.508                    133.685         82.5108
0.51                     135.305         82.2349
0.512                    136.951         81.9489
0.514                    138.624         81.6525
0.516                    140.323         81.3454
0.518                    142.048         81.0274
0.52                       143.8         80.6981
0.522                    145.578         80.3573
0.524                    147.383         80.0046
0.526                    149.213         79.6398
0.528                    151.069         79.2626
0.53                     152.951         78.8727
0.532                    154.858         78.4697
0.534                    156.789         78.0535
0.536                    158.743         77.6237
0.538                    160.721           77.18
0.54                     162.722         76.7222
0.542                    164.744         76.2501
0.544                    166.786         75.7634
0.546                    168.848         75.2618
0.548                    170.927         74.7452
0.55                     173.023         74.2132
0.552                    175.134         73.6659
0.554                    177.259         73.1028
0.556                    179.396          72.524
0.558                    181.541         71.9293
0.56                     183.695         71.3186
0.562                    185.854         70.6918
0.564                    188.016         70.0488
0.566                    190.179         69.3896
0.568                    192.339         68.7143
0.57                     194.494         68.0228
0.572                    196.641         67.3153
0.574                    198.778         66.5918
0.576                      200.9         65.8525
0.578                    203.005         65.0975
0.58                     205.089         64.3272
0.582                     207.15         63.5416
0.584                    209.182         62.7413
0.586                    211.183         61.9263
0.588                     213.15         61.0972
0.59                     215.079         60.2543
0.592                    216.965         59.3981
0.594                    218.807          58.529
0.596                    220.599         57.6476
0.598                     222.34         56.7544
0.6                      224.025         55.8499
0.602                    225.652         54.9348
0.604                    227.217         54.0097
0.606                    228.718         53.0752
0.608                    230.152         52.1319
0.61                     231.516         51.1805
0.612                    232.809         50.2217
0.614                    234.027         49.2561
0.616                    235.171         48.2844
0.618                    236.237         47.3073
0.62                     237.224         46.3255
0.622                    238.132         45.3395
0.624                    238.959           44.35
0.626                    239.704         43.3577
0.628                    240.369          42.363
0.63                     240.951         41.3666
0.632                    241.451         40.3691
0.634                    241.869         39.3709
0.636                    242.206         38.3726
0.638                    242.462         37.3745
0.64                     242.637         36.3773
0.642                    242.732          35.381
0.644                    242.748         34.3863
0.646                    242.687         33.3934
0.648                    242.548         32.4027
0.65                     242.333         31.4144
0.652                    242.043         30.4288
0.654                    241.679         29.4461
0.656                    241.242         28.4667
0.658                    240.733         27.4905
0.66                     240.154         26.5179
0.662                    239.504          25.549
0.664                    238.786          24.584
0.666                    238.001         23.6231
0.668                    237.148         22.6665
0.67                      236.23         21.7142
0.672                    235.247         20.7664
0.674                      234.2         19.8235
0.676                     233.09         18.8853
0.678                    231.918         17.9523
0.68                     230.685         17.0245
0.682                    229.391         16.1023
0.684                    228.038         15.1858
0.686                    226.626         14.2754
0.688                    225.157         13.3712
0.69                     223.631         12.4735
0.692                     222.05         11.5828
0.694                    220.414         10.6993
0.696                    218.726         9.82332
0.698                    216.985         8.95539
0.7                      215.194         8.09575
0.702                    213.353         7.24498
0.704                    211.466         6.40334
0.706                    209.532         5.57136
0.708                    207.554          4.7496
0.71                     205.534         3.93838
0.712                    203.474         3.13826
0.714                    201.375         2.34976
0.716                     199.24         1.57331
0.718                    197.072         0.80951
0.72                     194.871       0.0587689
0.722                    192.642       -0.678308
0.724                    190.385        -1.40129
0.726                    188.104        -2.10971
0.728                    185.801        -2.80305
0.73                     183.479        -3.48084
0.732                    181.141        -4.14261
0.734                    178.788        -4.78791
0.736                    176.424         -5.4163
0.738                     174.05        -6.02743
0.74                     171.671        -6.62092
0.742                    169.287        -7.19637
0.744                    166.902        -7.75338
0.746                    164.518        -8.29164
0.748                    162.137         -8.8109
0.75                     159.761        -9.31085
0.752                    157.394        -9.79123
0.754                    155.036        -10.2518
0.756                     152.69        -10.6923
0.758                    150.357        -11.1127
0.76                     148.041        -11.5127
0.762                    145.741        -11.8922
0.764                    143.461        -12.2509
0.766                      141.2         -12.589
0.768                    138.962        -12.9061
0.77                     136.747        -13.2024
0.772                    134.557        -13.4775
0.774                    132.391        -13.7318
0.776                    130.253        -13.9648
0.778                    128.142        -14.1769
0.78                     126.059        -14.3677
0.782                    124.005        -14.5375
0.784                    121.982        -14.6862
0.786                    119.988        -14.8139
0.788                    118.026        -14.9205
0.79                     116.094        -15.0062
0.792                    114.195        -15.0709
0.794                    112.327        -15.1147
0.796                    110.492        -15.1377
0.798                     108.69        -15.1399
0.8                       106.92        -15.1214
0.802                    105.183        -15.0822
0.804                    103.479        -15.0225
0.806                    101.808        -14.9423
0.808                     100.17        -14.8417
0.81                     98.5652        -14.7207
0.812                     96.993        -14.5795
0.814                    95.4536        -14.4181
0.816                    93.9468        -14.2366
0.818                    92.4727        -14.0351
0.82                      91.031        -13.8138
0.822                    89.6216        -13.5727
0.824                    88.2443        -13.3118
0.826                    86.8989        -13.0314
0.828                    85.5852        -12.7316
0.83                      84.303        -12.4123
0.832                    83.0522        -12.0739
0.834                    81.8325        -11.7164
0.836                    80.6437          -11.34
0.838                    79.4857        -10.9447
0.84                     78.3581        -10.5309
0.842                    77.2607        -10.0986
0.844                    76.1934          -9.648
0.846                     75.156        -9.17936
0.848                    74.1481         -8.6929
0.85                     73.1697        -8.18881
0.852                    72.2204        -7.66736
0.854                    71.3002        -7.12879
0.856                    70.4087        -6.57342
0.858                    69.5458        -6.00151
0.86                     68.7113        -5.41342
0.862                    67.9049        -4.80948
0.864                    67.1265        -4.19007
0.866                    66.3759        -3.55557
0.868                    65.6529        -2.90639
0.87                     64.9572        -2.24297
0.872                    64.2887        -1.56578
0.874                    63.6472       -0.875315
0.876                    63.0325       -0.172081
0.878                    62.4444         0.54339
0.88                     61.8826         1.27053
0.882                    61.3469         2.00874
0.884                    60.8372         2.75743
0.886                    60.3533         3.51596
0.888                    59.8948         4.28367
0.89                     59.4616         5.05989
0.892                    59.0535         5.84393
0.894                    58.6701         6.63507
0.896                    58.3112          7.4326
0.898                    57.9767         8.23577
0.9                      57.6662         9.04383
0.902                    57.3794         9.85603
0.904                     57.116         10.6716
0.906                    56.8758         11.4898
0.908                    56.6585         12.3097
0.91                     56.4637         13.1308
0.912                    56.2911         13.9521
0.914                    56.1405          14.773
0.916                    56.0114         15.5926
0.918                    55.9035         16.4103
0.92                     55.8164         17.2253
0.922                    55.7498         18.0369
0.924                    55.7034         18.8444
0.926                    55.6766         19.6471
0.928                    55.6693         20.4444
0.93                     55.6808         21.2357
0.932                    55.7109         22.0203
0.934                    55.7591         22.7977
0.936                    55.8251         23.5674
0.938                    55.9083         24.3287
0.94                     56.0085         25.0813
0.942                    56.1251         25.8246
0.944                    56.2577         26.5582
0.946                    56.4059         27.2818
0.948                    56.5693          27.995
0.95                     56.7475         28.6974
0.952                    56.9399         29.3888
0.954                    57.1462         30.0688
0.956                     57.366         30.7372
0.958                    57.5987         31.3938
0.96                      57.844         32.0384
0.962                    58.1015         32.6709
0.964                    58.3706          33.291
0.966                     58.651         33.8988
0.968                    58.9423         34.4942
0.97                     59.2439         35.0769
0.972                    59.5556         35.6472
0.974                    59.8769         36.2048
0.976                    60.2073         36.7499
0.978                    60.5465         37.2824
0.98                      60.894         37.8024
0.982                    61.2495           38.31
0.984                    61.6125         38.8053
0.986                    61.9826         39.2883
0.988                    62.3595         39.7591
0.99                     62.7428          40.218
0.992                     63.132         40.6649
0.994                    63.5269         41.1001
0.996                     63.927         41.5238
0.998                    64.3319         41.9361
1                        64.7413         42.3372
1.002                    65.1549         42.7272
1.004                    65.5722         43.1065
1.006                    65.9929         43.4752
1.008                    66.4168         43.8334
1.01                     66.8434         44.1816
1.012                    67.2724         44.5198
1.014                    67.7035         44.8483
1.016                    68.1364         45.1674
1.018                    68.5708         45.4773
1.02                     69.0063         45.7782
1.022                    69.4427         46.0705
1.024                    69.8797         46.3543
1.026                     70.317           46.63
1.028                    70.7544         46.8978
1.03                     71.1915          47.158
1.032                    71.6281         47.4108
1.034                    72.0641         47.6565
1.036                    72.4991         47.8954
1.038                    72.9329         48.1278
1.04                     73.3653         48.3539
1.042                    73.7962          48.574
1.044                    74.2253         48.7884
1.046                    74.6524         48.9974
1.048                    75.0775         49.2012
1.05                     75.5002         49.4001
1.052                    75.9206         49.5945
1.054                    76.3385         49.7844
1.056                    76.7537         49.9703
1.058                    77.1662         50.1524
1.06                     77.5759         50.3309
1.062                    77.9827         50.5062
1.064                    78.3866         50.6783
1.066                    78.7874         50.8478
1.068                    79.1853         51.0146
1.07                     79.5801         51.1792
1.072                    79.9718         51.3417
1.074                    80.3605         51.5023
1.076                    80.7463         51.6613
1.078                    81.1291          51.819
1.08                     81.5089         51.9755
1.082                     81.886          52.131
1.084                    82.2602         52.2857
1.086                    82.6319         52.4399
1.088                    83.0009         52.5936
1.09                     83.3675         52.7472
1.092                    83.7317         52.9007
1.094                    84.0939         53.0543
1.096                    84.4539         53.2081
1.098                    84.8121         53.3624
1.1                      85.1686         53.5173
1.102                    85.5236         53.6728
1.104                    85.8773         53.8291
1.106                    86.2298         53.9863
1.108                    86.5814         54.1446
1.11                     86.9323         54.3039
1.112                    87.2826         54.4645
1.114                    87.6327         54.6263
1.116                    87.9827         54.7894
1.118                    88.3328          54.954
1.12                     88.6834           55.12
1.122                    89.0346         55.2876
1.124                    89.3867         55.4566
1.126                    89.7399         55.6272
1.128                    90.0945         55.7994
1.13                     90.4506         55.9732
1.132                    90.8086         56.1486
1.134                    91.1688         56.3256
1.136                    91.5312         56.5043
1.138                    91.8963         56.6845
1.14                     92.2641         56.8662
1.142                     92.635         57.0495
1.144                    93.0092         57.2343
1.146                     93.387         57.4206
1.148                    93.7684         57.6084
1.15                     94.1539         57.7975
1.152                    94.5436         57.9879
1.154                    94.9377         58.1796
1.156                    95.3365         58.3726
1.158                      95.74         58.5667
1.16                     96.1486         58.7619
1.162                    96.5626         58.9581
1.164                    96.9819         59.1553
1.166                    97.4069         59.3534
1.168                    97.8378         59.5523
1.17                     98.2746         59.7519
1.172                    98.7177         59.9522
1.174                    99.1671          60.153
1.176                    99.6231         60.3544
1.178                    100.086         60.5562
1.18                     100.555         60.7583
1.182                    101.032         60.9606
1.184                    101.515         61.1632
1.186                    102.006         61.3658
1.188                    102.505         61.5684
1.19                     103.011         61.7709
1.192                    103.525         61.9733
1.194                    104.046         62.1755