! TOUCHSTONE file generated by CST MICROWAVE STUDIO
! Date and time: Wed Mar 31 09:41:28 2021
! Project name: 700_960_MHz_IFA_première_version.cst
! Parameters = {n=5; b=3; a=0; L20007=15; C20006=2.1; L20005=15; C20004=6.366; L20003=14.34; C20002=3.969; L20001=3.542; L40004=15.92; C40003=5.736; L40002=9.923; C40001=1.417; L20004=15.92; C20003=5.736; L20002=9.923; C20001=1.417; W=22; L=56.58; Wg=140; Lg=175}
! Header version: 2018
! Port assignment regex: !\s*Touchstone port\s*([0-9]+)\s*=\s*(CST MWS port|CST DS port)\s*([0-9]+|Zmin|Zmax)\s*\(\"(.*)\"\)(\s*mode\s*([0-9]+))?.*
! Touchstone port assignment:
! Touchstone port 1 = CST MWS port 1 ("")
# GHz S MA R 50
0                       0.999505             180
0.002                   0.999505         179.342
0.004                   0.999503         178.684
0.006                   0.999501         178.026
0.008                   0.999498         177.368
0.01                    0.999495         176.711
0.012                    0.99949         176.053
0.014                   0.999485         175.395
0.016                   0.999479         174.738
0.018                   0.999472         174.081
0.02                    0.999464         173.424
0.022                   0.999455         172.767
0.024                   0.999445         172.111
0.026                   0.999435         171.454
0.028                   0.999423         170.798
0.03                    0.999411         170.143
0.032                   0.999397         169.487
0.034                   0.999383         168.832
0.036                   0.999367         168.178
0.038                   0.999351         167.523
0.04                    0.999334          166.87
0.042                   0.999315         166.216
0.044                   0.999295         165.563
0.046                   0.999275         164.911
0.048                   0.999253         164.259
0.05                     0.99923         163.607
0.052                   0.999206         162.957
0.054                   0.999181         162.306
0.056                   0.999154         161.657
0.058                   0.999127         161.008
0.06                    0.999098         160.359
0.062                   0.999068         159.711
0.064                   0.999037         159.064
0.066                   0.999004         158.418
0.068                    0.99897         157.772
0.07                    0.998935         157.127
0.072                   0.998899         156.483
0.074                   0.998862         155.839
0.076                   0.998823         155.197
0.078                   0.998783         154.555
0.08                    0.998741         153.914
0.082                   0.998699         153.274
0.084                   0.998655         152.634
0.086                   0.998609         151.996
0.088                   0.998563         151.359
0.09                    0.998515         150.722
0.092                   0.998467         150.087
0.094                   0.998417         149.452
0.096                   0.998365         148.818
0.098                   0.998313         148.186
0.1                     0.998259         147.554
0.102                   0.998205         146.924
0.104                   0.998149         146.294
0.106                   0.998092         145.666
0.108                   0.998034         145.038
0.11                    0.997976         144.412
0.112                   0.997916         143.787
0.114                   0.997855         143.163
0.116                   0.997794          142.54
0.118                   0.997732         141.919
0.12                    0.997669         141.298
0.122                   0.997605         140.679
0.124                    0.99754         140.061
0.126                   0.997475         139.444
0.128                    0.99741         138.828
0.13                    0.997343         138.214
0.132                   0.997277         137.601
0.134                    0.99721         136.989
0.136                   0.997142         136.378
0.138                   0.997074         135.769
0.14                    0.997006          135.16
0.142                   0.996937         134.554
0.144                   0.996869         133.948
0.146                     0.9968         133.344
0.148                   0.996731         132.741
0.15                    0.996662         132.139
0.152                   0.996593         131.539
0.154                   0.996525          130.94
0.156                   0.996456         130.343
0.158                   0.996387         129.747
0.16                    0.996318         129.152
0.162                    0.99625         128.558
0.164                   0.996182         127.966
0.166                   0.996114         127.375
0.168                   0.996047         126.786
0.17                    0.995979         126.198
0.172                   0.995912         125.611
0.174                   0.995846         125.025
0.176                   0.995779         124.442
0.178                   0.995713         123.859
0.18                    0.995648         123.278
0.182                   0.995583         122.698
0.184                   0.995518         122.119
0.186                   0.995453         121.542
0.188                   0.995389         120.966
0.19                    0.995325         120.392
0.192                   0.995262         119.818
0.194                   0.995199         119.247
0.196                   0.995136         118.676
0.198                   0.995073         118.107
0.2                     0.995011          117.54
0.202                   0.994948         116.973
0.204                   0.994886         116.408
0.206                   0.994824         115.844
0.208                   0.994762         115.282
0.21                    0.994699         114.721
0.212                   0.994637         114.161
0.214                   0.994575         113.603
0.216                   0.994512         113.046
0.218                   0.994449          112.49
0.22                    0.994385         111.936
0.222                   0.994322         111.383
0.224                   0.994257         110.831
0.226                   0.994192          110.28
0.228                   0.994126         109.731
0.23                     0.99406         109.183
0.232                   0.993993         108.636
0.234                   0.993924         108.091
0.236                   0.993855         107.547
0.238                   0.993785         107.004
0.24                    0.993713         106.462
0.242                    0.99364         105.922
0.244                   0.993566         105.383
0.246                    0.99349         104.845
0.248                   0.993412         104.308
0.25                    0.993333         103.773
0.252                   0.993252         103.239
0.254                   0.993169         102.706
0.256                   0.993085         102.174
0.258                   0.992998         101.643
0.26                    0.992909         101.114
0.262                   0.992818         100.586
0.264                   0.992725         100.059
0.266                   0.992629         99.5336
0.268                   0.992531         99.0091
0.27                     0.99243         98.4859
0.272                   0.992327         97.9638
0.274                   0.992221         97.4428
0.276                   0.992113         96.9231
0.278                   0.992002         96.4045
0.28                    0.991888         95.8871
0.282                   0.991771         95.3709
0.284                   0.991651         94.8558
0.286                   0.991529         94.3418
0.288                   0.991403          93.829
0.29                    0.991275         93.3173
0.292                   0.991143         92.8067
0.294                   0.991008         92.2972
0.296                    0.99087         91.7889
0.298                    0.99073         91.2816
0.3                     0.990585         90.7754
0.302                   0.990438         90.2703
0.304                   0.990288         89.7663
0.306                   0.990134         89.2633
0.308                   0.989977         88.7614
0.31                    0.989817         88.2605
0.312                   0.989654         87.7606
0.314                   0.989487         87.2618
0.316                   0.989317         86.7639
0.318                   0.989144          86.267
0.32                    0.988968         85.7711
0.322                   0.988788         85.2762
0.324                   0.988605         84.7822
0.326                   0.988419         84.2891
0.328                   0.988229         83.7969
0.33                    0.988036         83.3056
0.332                   0.987839         82.8152
0.334                   0.987639         82.3257
0.336                   0.987435         81.8369
0.338                   0.987227         81.3491
0.34                    0.987016         80.8619
0.342                   0.986802         80.3756
0.344                   0.986583           79.89
0.346                    0.98636         79.4052
0.348                   0.986134         78.9211
0.35                    0.985903         78.4376
0.352                   0.985668         77.9548
0.354                   0.985429         77.4727
0.356                   0.985185         76.9911
0.358                   0.984937         76.5102
0.36                    0.984683         76.0298
0.362                   0.984425           75.55
0.364                   0.984161         75.0707
0.366                   0.983892         74.5918
0.368                   0.983617         74.1134
0.37                    0.983335         73.6354
0.372                   0.983048         73.1579
0.374                   0.982754         72.6807
0.376                   0.982453         72.2039
0.378                   0.982145         71.7274
0.38                    0.981829         71.2511
0.382                   0.981505         70.7752
0.384                   0.981173         70.2995
0.386                   0.980832         69.8239
0.388                   0.980482         69.3487
0.39                    0.980122         68.8735
0.392                   0.979752         68.3985
0.394                   0.979371         67.9235
0.396                    0.97898         67.4487
0.398                   0.978576         66.9739
0.4                      0.97816         66.4992
0.402                   0.977731         66.0245
0.404                   0.977289         65.5498
0.406                   0.976832          65.075
0.408                   0.976361         64.6002
0.41                    0.975875         64.1252
0.412                   0.975372         63.6503
0.414                   0.974853         63.1752
0.416                   0.974316            62.7
0.418                   0.973761         62.2246
0.42                    0.973187         61.7491
0.422                   0.972594         61.2735
0.424                    0.97198         60.7976
0.426                   0.971345         60.3215
0.428                   0.970688         59.8453
0.43                    0.970009         59.3689
0.432                   0.969305         58.8923
0.434                   0.968578         58.4154
0.436                   0.967825         57.9384
0.438                   0.967047         57.4611
0.44                    0.966241         56.9837
0.442                   0.965409          56.506
0.444                   0.964548         56.0281
0.446                   0.963657         55.5501
0.448                   0.962737         55.0719
0.45                    0.961786         54.5935
0.452                   0.960803         54.1149
0.454                   0.959788         53.6363
0.456                    0.95874         53.1574
0.458                   0.957658         52.6786
0.46                    0.956542         52.1995
0.462                    0.95539         51.7206
0.464                   0.954202         51.2415
0.466                   0.952977         50.7624
0.468                   0.951715         50.2834
0.47                    0.950415         49.8044
0.472                   0.949076         49.3255
0.474                   0.947698         48.8467
0.476                    0.94628         48.3681
0.478                   0.944821         47.8898
0.48                    0.943322         47.4116
0.482                   0.941781         46.9337
0.484                   0.940198         46.4562
0.486                   0.938574          45.979
0.488                   0.936906         45.5023
0.49                    0.935195          45.026
0.492                   0.933442         44.5503
0.494                   0.931644         44.0752
0.496                   0.929803         43.6007
0.498                   0.927918         43.1268
0.5                     0.925989         42.6538
0.502                   0.924016         42.1815
0.504                   0.921998         41.7101
0.506                   0.919937         41.2396
0.508                   0.917831         40.7701
0.51                    0.915681         40.3016
0.512                   0.913487         39.8343
0.514                    0.91125         39.3681
0.516                   0.908969         38.9031
0.518                   0.906645         38.4395
0.52                    0.904278         37.9772
0.522                   0.901869         37.5164
0.524                   0.899418          37.057
0.526                   0.896925         36.5993
0.528                   0.894392         36.1431
0.53                    0.891818         35.6886
0.532                   0.889204         35.2359
0.534                   0.886552          34.785
0.536                   0.883861          34.336
0.538                   0.881133          33.889
0.54                    0.878368         33.4439
0.542                   0.875568         33.0009
0.544                   0.872732           32.56
0.546                   0.869863         32.1213
0.548                   0.866961         31.6849
0.55                    0.864027         31.2508
0.552                   0.861063          30.819
0.554                   0.858069         30.3896
0.556                   0.855046         29.9626
0.558                   0.851996         29.5382
0.56                    0.848921         29.1162
0.562                    0.84582         28.6968
0.564                   0.842696         28.2801
0.566                    0.83955          27.866
0.568                   0.836383         27.4545
0.57                    0.833196         27.0458
0.572                   0.829991         26.6398
0.574                   0.826769         26.2365
0.576                   0.823532          25.836
0.578                    0.82028         25.4383
0.58                    0.817016         25.0433
0.582                    0.81374         24.6512
0.584                   0.810455         24.2618
0.586                   0.807161         23.8752
0.588                   0.803859         23.4913
0.59                    0.800552         23.1102
0.592                   0.797239         22.7318
0.594                   0.793924         22.3561
0.596                   0.790606         21.9831
0.598                   0.787288         21.6127
0.6                      0.78397         21.2449
0.602                   0.780653         20.8796
0.604                    0.77734         20.5168
0.606                   0.774029         20.1565
0.608                   0.770724         19.7985
0.61                    0.767424         19.4428
0.612                   0.764131         19.0894
0.614                   0.760846         18.7381
0.616                   0.757569         18.3888
0.618                   0.754301         18.0415
0.62                    0.751043         17.6961
0.622                   0.747795         17.3524
0.624                   0.744558         17.0104
0.626                   0.741333           16.67
0.628                   0.738119          16.331
0.63                    0.734917         15.9934
0.632                   0.731728         15.6569
0.634                   0.728551         15.3215
0.636                   0.725386         14.9871
0.638                   0.722234         14.6535
0.64                    0.719094         14.3206
0.642                   0.715966         13.9882
0.644                   0.712849         13.6562
0.646                   0.709744         13.3245
0.648                    0.70665         12.9929
0.65                    0.703566         12.6612
0.652                   0.700491         12.3295
0.654                   0.697425         11.9974
0.656                   0.694367         11.6648
0.658                   0.691316         11.3316
0.66                    0.688271         10.9976
0.662                    0.68523         10.6628
0.664                   0.682193         10.3269
0.666                   0.679159         9.98977
0.668                   0.676125         9.65138
0.67                     0.67309          9.3115
0.672                   0.670054         8.97002
0.674                   0.667013         8.62687
0.676                   0.663968         8.28181
0.678                   0.660915         7.93481
0.68                    0.657853         7.58571
0.682                   0.654781         7.23439
0.684                   0.651695         6.88078
0.686                   0.648596         6.52473
0.688                   0.645479         6.16618
0.69                    0.642344           5.805
0.692                   0.639188         5.44114
0.694                    0.63601         5.07449
0.696                   0.632806         4.70501
0.698                   0.629576         4.33263
0.7                     0.626316         3.95724
0.702                   0.623024         3.57887
0.704                   0.619699         3.19739
0.706                   0.616338          2.8128
0.708                   0.612939         2.42512
0.71                      0.6095         2.03424
0.712                   0.606018         1.64019
0.714                   0.602491         1.24298
0.716                   0.598918        0.842562
0.718                   0.595296        0.439007
0.72                    0.591622       0.0322831
0.722                   0.587896       -0.377528
0.724                   0.584114       -0.790427
0.726                   0.580275        -1.20639
0.728                   0.576377        -1.62532
0.73                    0.572417        -2.04718
0.732                   0.568395        -2.47188
0.734                   0.564308        -2.89934
0.736                   0.560155        -3.32945
0.738                   0.555933        -3.76216
0.74                    0.551642        -4.19735
0.742                   0.547279        -4.63489
0.744                   0.542843        -5.07462
0.746                   0.538333         -5.5164
0.748                   0.533748        -5.96012
0.75                    0.529086        -6.40558
0.752                   0.524346        -6.85263
0.754                   0.519526        -7.30107
0.756                   0.514627        -7.75069
0.758                   0.509646        -8.20135
0.76                    0.504584        -8.65274
0.762                    0.49944        -9.10465
0.764                   0.494212        -9.55681
0.766                     0.4889         -10.009
0.768                   0.483505        -10.4609
0.77                    0.478025        -10.9122
0.772                    0.47246        -11.3627
0.774                   0.466811        -11.8119
0.776                   0.461077        -12.2595
0.778                   0.455258        -12.7051
0.78                    0.449355        -13.1484
0.782                   0.443368        -13.5889
0.784                   0.437297        -14.0261
0.786                   0.431143        -14.4596
0.788                   0.424906        -14.8888
0.79                    0.418588        -15.3133
0.792                   0.412189        -15.7324
0.794                    0.40571        -16.1455
0.796                   0.399153         -16.552
0.798                   0.392518         -16.951
0.8                     0.385808         -17.342
0.802                   0.379023         -17.724
0.804                   0.372166        -18.0962
0.806                   0.365238        -18.4575
0.808                   0.358241        -18.8071
0.81                    0.351178        -19.1437
0.812                   0.344051        -19.4662
0.814                   0.336862        -19.7732
0.816                   0.329613        -20.0634
0.818                   0.322309        -20.3351
0.82                    0.314951        -20.5867
0.822                   0.307544        -20.8163
0.824                   0.300091        -21.0219
0.826                   0.292595        -21.2013
0.828                   0.285061        -21.3519
0.83                    0.277494         -21.471
0.832                   0.269897        -21.5557
0.834                   0.262276        -21.6026
0.836                   0.254638        -21.6078
0.838                   0.246987        -21.5674
0.84                    0.239331        -21.4766
0.842                   0.231677        -21.3303
0.844                   0.224032        -21.1226
0.846                   0.216407         -20.847
0.848                    0.20881        -20.4963
0.85                    0.201253         -20.062
0.852                   0.193748         -19.535
0.854                   0.186309        -18.9046
0.856                   0.178951        -18.1593
0.858                   0.171692        -17.2857
0.86                    0.164553         -16.269
0.862                   0.157555         -15.093
0.864                   0.150727        -13.7393
0.866                   0.144097        -12.1885
0.868                     0.1377        -10.4195
0.87                    0.131575         -8.4104
0.872                   0.125768        -6.13969
0.874                   0.120327         -3.5872
0.876                   0.115309       -0.736277
0.878                   0.110773         2.42342
0.88                    0.106783         5.89264
0.882                   0.103403         9.65894
0.884                   0.100695         13.6937
0.886                  0.0987118         17.9501
0.888                  0.0974968         22.3636
0.89                   0.0970754          26.856
0.892                  0.0974536         31.3416
0.894                  0.0986172         35.7353
0.896                   0.100533         39.9609
0.898                   0.103152          43.957
0.9                     0.106415         47.6801
0.902                   0.110257         51.1046
0.904                   0.114612         54.2206
0.906                   0.119414          57.031
0.908                   0.124602         59.5474
0.91                    0.130121         61.7873
0.912                    0.13592         63.7712
0.914                   0.141957         65.5209
0.916                   0.148191         67.0581
0.918                   0.154589         68.4035
0.92                    0.161122         69.5767
0.922                   0.167763         70.5952
0.924                   0.174491         71.4754
0.926                   0.181287         72.2317
0.928                   0.188132          72.877
0.93                    0.195012         73.4229
0.932                   0.201914         73.8797
0.934                   0.208827         74.2564
0.936                   0.215739          74.561
0.938                   0.222642         74.8009
0.94                    0.229528         74.9825
0.942                   0.236389         75.1113
0.944                   0.243219         75.1925
0.946                   0.250011         75.2306
0.948                    0.25676         75.2298
0.95                    0.263462         75.1937
0.952                   0.270112         75.1255
0.954                   0.276705         75.0283
0.956                   0.283239         74.9046
0.958                   0.289709          74.757
0.96                    0.296113         74.5877
0.962                   0.302449         74.3986
0.964                   0.308712         74.1916
0.966                   0.314902         73.9683
0.968                   0.321016         73.7304
0.97                    0.327052         73.4791
0.972                   0.333009         73.2158
0.974                   0.338884         72.9416
0.976                   0.344678         72.6577
0.978                   0.350388         72.3651
0.98                    0.356013         72.0648
0.982                   0.361553         71.7575
0.984                   0.367007         71.4441
0.986                   0.372374         71.1254
0.988                   0.377654          70.802
0.99                    0.382847         70.4746
0.992                   0.387952         70.1438
0.994                   0.392969         69.8102
0.996                   0.397899         69.4743
0.998                   0.402741         69.1367
1                       0.407495         68.7978
1.002                   0.412163         68.4579
1.004                   0.416744         68.1177
1.006                   0.421239         67.7774
1.008                   0.425649         67.4373
1.01                    0.429975          67.098
1.012                   0.434217         66.7596
1.014                   0.438376         66.4225
1.016                   0.442453          66.087
1.018                    0.44645         65.7533
1.02                    0.450368         65.4217
1.022                   0.454208         65.0924
1.024                   0.457971         64.7657
1.026                   0.461658         64.4417
1.028                   0.465272         64.1207
1.03                    0.468814         63.8028
1.032                   0.472285         63.4883
1.034                   0.475688         63.1771
1.036                   0.479023         62.8695
1.038                   0.482293         62.5657
1.04                      0.4855         62.2657
1.042                   0.488645         61.9697
1.044                    0.49173         61.6777
1.046                   0.494758         61.3898
1.048                   0.497731         61.1061
1.05                     0.50065         60.8268
1.052                   0.503518         60.5517
1.054                   0.506337          60.281
1.056                   0.509109         60.0148
1.058                   0.511836         59.7529
1.06                     0.51452         59.4956
1.062                   0.517164         59.2426
1.064                   0.519769         58.9941
1.066                   0.522339         58.7501
1.068                   0.524874         58.5105
1.07                    0.527378         58.2753
1.072                   0.529853         58.0445
1.074                     0.5323          57.818
1.076                   0.534722         57.5957
1.078                   0.537122         57.3776
1.08                      0.5395         57.1637
1.082                    0.54186         56.9538
1.084                   0.544203          56.748
1.086                   0.546531          56.546
1.088                   0.548847         56.3478
1.09                    0.551152         56.1533
1.092                   0.553448         55.9624
1.094                   0.555737         55.7749
1.096                   0.558021         55.5908
1.098                   0.560301         55.4099
1.1                      0.56258         55.2321
1.102                   0.564858         55.0574
1.104                   0.567138         54.8854
1.106                   0.569421         54.7161
1.108                   0.571708         54.5494
1.11                       0.574         54.3851
1.112                     0.5763         54.2231
1.114                   0.578607         54.0632
1.116                   0.580924         53.9053
1.118                   0.583251         53.7492
1.12                     0.58559         53.5947
1.122                    0.58794         53.4418
1.124                   0.590304         53.2902
1.126                   0.592681         53.1399
1.128                   0.595073         52.9906
1.13                     0.59748         52.8423
1.132                   0.599902         52.6947
1.134                    0.60234         52.5477
1.136                   0.604795         52.4012
1.138                   0.607266         52.2551
1.14                    0.609755         52.1092
1.142                    0.61226         51.9634
1.144                   0.614782         51.8174
1.146                   0.617322         51.6714
1.148                   0.619879          51.525
1.15                    0.622452         51.3782
1.152                   0.625043         51.2308
1.154                    0.62765         51.0828
1.156                   0.630273         50.9341
1.158                   0.632913         50.7845
1.16                    0.635567          50.634
1.162                   0.638237         50.4824
1.164                   0.640922         50.3297
1.166                    0.64362         50.1758
1.168                   0.646333         50.0206
1.17                    0.649057         49.8641
1.172                   0.651795         49.7061
1.174                   0.654543         49.5467
1.176                   0.657302         49.3858
1.178                   0.660072         49.2232
1.18                     0.66285          49.059
1.182                   0.665637         48.8932
1.184                   0.668432         48.7257
1.186                   0.671234         48.5564
1.188                   0.674041         48.3853
1.19                    0.676853         48.2125
1.192                    0.67967         48.0378
1.194                    0.68249         47.8614