! Touchstone file from project dualpolar_0409
! Exported from HFSS 2018.0.0
! Variables:
!  feed_posx = 13mm
!  feed_rad = 0.5mm
!  lam = 90mm
!  patchh = 0mm
!  subh = 0.8mm
!  subx = 90mm
!  suby = 90mm
!  upatchx = 40mm
!  upatchy = 40mm
# GHZ S MA R 50.000000
! Modal data exported
! Port[1] = 1:1
1                0.996206225764474 142.041591567571 
! Gamma         !               0                0                
! Port Impedance50               0                

1.005            0.99618220246734 141.798841273318 
! Gamma         !               0                0                
! Port Impedance50               0                

1.01             0.996158642718813 141.555848397177 
! Gamma         !               0                0                
! Port Impedance50               0                

1.015            0.996135499322441 141.312604917459 
! Gamma         !               0                0                
! Port Impedance50               0                

1.02             0.99611272545003 141.069102642213 
! Gamma         !               0                0                
! Port Impedance50               0                

1.025            0.996090274601782 140.825333202434 
! Gamma         !               0                0                
! Port Impedance50               0                

1.03             0.996068100566035 140.581288045025 
! Gamma         !               0                0                
! Port Impedance50               0                

1.035            0.996046157378522 140.336958425478 
! Gamma         !               0                0                
! Port Impedance50               0                

1.04             0.99602439928109 140.092335400297 
! Gamma         !               0                0                
! Port Impedance50               0                

1.045            0.996002780679787 139.847409819112 
! Gamma         !               0                0                
! Port Impedance50               0                

1.05             0.995981256102241 139.602172316497 
! Gamma         !               0                0                
! Port Impedance50               0                

1.055            0.995959780154255 139.356613303464 
! Gamma         !               0                0                
! Port Impedance50               0                

1.06             0.995938307475521 139.110722958613 
! Gamma         !               0                0                
! Port Impedance50               0                

1.065            0.995916792694368 138.864491218939 
! Gamma         !               0                0                
! Port Impedance50               0                

1.07             0.995895190381439 138.61790777026  
! Gamma         !               0                0                
! Port Impedance50               0                

1.075            0.995873455002209 138.370962037247 
! Gamma         !               0                0                
! Port Impedance50               0                

1.08             0.995851540868228 138.123643173056 
! Gamma         !               0                0                
! Port Impedance50               0                

1.085            0.995829402086975 137.875940048515 
! Gamma         !               0                0                
! Port Impedance50               0                

1.09             0.99580699251022 137.627841240861 
! Gamma         !               0                0                
! Port Impedance50               0                

1.095            0.995784265680744 137.379335021997 
! Gamma         !               0                0                
! Port Impedance50               0                

1.1              0.995761174777313 137.130409346237 
! Gamma         !               0                0                
! Port Impedance50               0                

1.105            0.995737672557739 136.881051837531 
! Gamma         !               0                0                
! Port Impedance50               0                

1.11             0.995713711299903 136.631249776122 
! Gamma         !               0                0                
! Port Impedance50               0                

1.115            0.99568924274056 136.380990084607 
! Gamma         !               0                0                
! Port Impedance50               0                

1.12             0.995664218011778 136.13025931339  
! Gamma         !               0                0                
! Port Impedance50               0                

1.125            0.995638587574812 135.879043625462 
! Gamma         !               0                0                
! Port Impedance50               0                

1.13             0.995612301151246 135.627328780498 
! Gamma         !               0                0                
! Port Impedance50               0                

1.135            0.995585307651169 135.37510011822  
! Gamma         !               0                0                
! Port Impedance50               0                

1.14             0.9955575550982  135.122342540983 
! Gamma         !               0                0                
! Port Impedance50               0                

1.145            0.995528990551105 134.869040495554 
! Gamma         !               0                0                
! Port Impedance50               0                

1.15             0.995499560021771 134.615177954015 
! Gamma         !               0                0                
! Port Impedance50               0                

1.155            0.995469208389267 134.360738393768 
! Gamma         !               0                0                
! Port Impedance50               0                

1.16             0.995437879309698 134.105704776569 
! Gamma         !               0                0                
! Port Impedance50               0                

1.165            0.995405515121571 133.850059526538 
! Gamma         !               0                0                
! Port Impedance50               0                

1.17             0.995372056746316 133.593784507098 
! Gamma         !               0                0                
! Port Impedance50               0                

1.175            0.995337443583624 133.336860996761 
! Gamma         !               0                0                
! Port Impedance50               0                

1.18             0.995301613401223 133.07926966371  
! Gamma         !               0                0                
! Port Impedance50               0                

1.185            0.995264502218689 132.82099053909  
! Gamma         !               0                0                
! Port Impedance50               0                

1.19             0.995226044184831 132.562002988946 
! Gamma         !               0                0                
! Port Impedance50               0                

1.195            0.995186171448204 132.302285684704 
! Gamma         !               0                0                
! Port Impedance50               0                

1.2              0.995144814020229 132.041816572127 
! Gamma         !               0                0                
! Port Impedance50               0                

1.205            0.995101899630356 131.780572838646 
! Gamma         !               0                0                
! Port Impedance50               0                

1.21             0.995057353572705 131.518530878947 
! Gamma         !               0                0                
! Port Impedance50               0                

1.215            0.995011098543507 131.255666258736 
! Gamma         !               0                0                
! Port Impedance50               0                

1.22             0.99496305446868 130.991953676536 
! Gamma         !               0                0                
! Port Impedance50               0                

1.225            0.994913138320771 130.727366923408 
! Gamma         !               0                0                
! Port Impedance50               0                

1.23             0.994861263924449 130.461878840458 
! Gamma         !               0                0                
! Port Impedance50               0                

1.235            0.994807341749675 130.195461273978 
! Gamma         !               0                0                
! Port Impedance50               0                

1.24             0.994751278691575 129.928085028084 
! Gamma         !               0                0                
! Port Impedance50               0                

1.245            0.994692977835991 129.659719814659 
! Gamma         !               0                0                
! Port Impedance50               0                

1.25             0.994632338209561 129.390334200442 
! Gamma         !               0                0                
! Port Impedance50               0                

1.255            0.994569254513114 129.119895551063 
! Gamma         !               0                0                
! Port Impedance50               0                

1.26             0.994503616837025 128.848369971815 
! Gamma         !               0                0                
! Port Impedance50               0                

1.265            0.994435310357083 128.575722244932 
! Gamma         !               0                0                
! Port Impedance50               0                

1.27             0.994364215009269 128.301915763147 
! Gamma         !               0                0                
! Port Impedance50               0                

1.275            0.994290205141719 128.026912459251 
! Gamma         !               0                0                
! Port Impedance50               0                

1.28             0.994213149141965 127.750672731382 
! Gamma         !               0                0                
! Port Impedance50               0                

1.285            0.994132909037394 127.473155363731 
! Gamma         !               0                0                
! Port Impedance50               0                

1.29             0.99404934006664 127.19431744234  
! Gamma         !               0                0                
! Port Impedance50               0                

1.295            0.993962290219447 126.914114265627 
! Gamma         !               0                0                
! Port Impedance50               0                

1.3              0.993871599742265 126.632499249255 
! Gamma         !               0                0                
! Port Impedance50               0                

1.305            0.993777100606604 126.349423824927 
! Gamma         !               0                0                
! Port Impedance50               0                

1.31             0.993678615936869 126.064837332633 
! Gamma         !               0                0                
! Port Impedance50               0                

1.315            0.99357595939406 125.778686905875 
! Gamma         !               0                0                
! Port Impedance50               0                

1.32             0.993468934511406 125.490917349315 
! Gamma         !               0                0                
! Port Impedance50               0                

1.325            0.993357333977535 125.20147100826  
! Gamma         !               0                0                
! Port Impedance50               0                

1.33             0.993240938862399 124.910287629348 
! Gamma         !               0                0                
! Port Impedance50               0                

1.335            0.993119517780632 124.617304211733 
! Gamma         !               0                0                
! Port Impedance50               0                

1.34             0.99299282598649 124.322454848012 
! Gamma         !               0                0                
! Port Impedance50               0                

1.345            0.99286060439389 124.025670554054 
! Gamma         !               0                0                
! Port Impedance50               0                

1.35             0.992722578514376 123.726879086834 
! Gamma         !               0                0                
! Port Impedance50               0                

1.355            0.992578457305066 123.426004749265 
! Gamma         !               0                0                
! Port Impedance50               0                

1.36             0.992427931917766 123.122968180946 
! Gamma         !               0                0                
! Port Impedance50               0                

1.365            0.992270674339446 122.817686133629 
! Gamma         !               0                0                
! Port Impedance50               0                

1.37             0.992106335913225 122.510071230093 
! Gamma         !               0                0                
! Port Impedance50               0                

1.375            0.991934545727687 122.200031704989 
! Gamma         !               0                0                
! Port Impedance50               0                

1.38             0.991754908861084 121.887471126068 
! Gamma         !               0                0                
! Port Impedance50               0                

1.385            0.991567004465303 121.572288094046 
! Gamma         !               0                0                
! Port Impedance50               0                

1.39             0.991370383672755 121.254375919196 
! Gamma         !               0                0                
! Port Impedance50               0                

1.395            0.991164567307365 120.933622272533 
! Gamma         !               0                0                
! Port Impedance50               0                

1.4              0.990949043378508 120.609908809258 
! Gamma         !               0                0                
! Port Impedance50               0                

1.405            0.990723264334213 120.283110761867 
! Gamma         !               0                0                
! Port Impedance50               0                

1.41             0.990486644047025 119.953096500066 
! Gamma         !               0                0                
! Port Impedance50               0                

1.415            0.990238554502558 119.619727054292 
! Gamma         !               0                0                
! Port Impedance50               0                

1.42             0.989978322157011 119.282855599344 
! Gamma         !               0                0                
! Port Impedance50               0                

1.425            0.989705223925567 118.942326894168 
! Gamma         !               0                0                
! Port Impedance50               0                

1.43             0.989418482758655 118.597976673452 
! Gamma         !               0                0                
! Port Impedance50               0                

1.435            0.989117262757372 118.249630986174 
! Gamma         !               0                0                
! Port Impedance50               0                

1.44             0.98880066377286 117.89710547565  
! Gamma         !               0                0                
! Port Impedance50               0                

1.445            0.988467715426955 117.540204595051 
! Gamma         !               0                0                
! Port Impedance50               0                

1.45             0.988117370482801 117.178720751587 
! Gamma         !               0                0                
! Port Impedance50               0                

1.455            0.987748497484212 116.812433371762 
! Gamma         !               0                0                
! Port Impedance50               0                

1.46             0.987359872571059 116.441107879166 
! Gamma         !               0                0                
! Port Impedance50               0                

1.465            0.98695017036468 116.064494575237 
! Gamma         !               0                0                
! Port Impedance50               0                

1.47             0.986517953801916 115.682327412171 
! Gamma         !               0                0                
! Port Impedance50               0                

1.475            0.986061662778404 115.294322645852 
! Gamma         !               0                0                
! Port Impedance50               0                

1.48             0.985579601440933 114.900177355033 
! Gamma         !               0                0                
! Port Impedance50               0                

1.485            0.985069923944305 114.499567811267 
! Gamma         !               0                0                
! Port Impedance50               0                

1.49             0.984530618459607 114.092147681958 
! Gamma         !               0                0                
! Port Impedance50               0                

1.495            0.98395948918747 113.677546046584 
! Gamma         !               0                0                
! Port Impedance50               0                

1.5              0.98335413609061 113.25536520338  
! Gamma         !               0                0                
! Port Impedance50               0                

1.505            0.98271193201379 112.825178240628 
! Gamma         !               0                0                
! Port Impedance50               0                

1.51             0.98202999680483 112.38652634306  
! Gamma         !               0                0                
! Port Impedance50               0                

1.515            0.981305167985831 111.938915799669 
! Gamma         !               0                0                
! Port Impedance50               0                

1.52             0.980533967447358 111.481814674329 
! Gamma         !               0                0                
! Port Impedance50               0                

1.525            0.979712563547497 111.014649094954 
! Gamma         !               0                0                
! Port Impedance50               0                

1.53             0.978836727889493 110.536799110298 
! Gamma         !               0                0                
! Port Impedance50               0                

1.535            0.977901785922453 110.047594055821 
! Gamma         !               0                0                
! Port Impedance50               0                

1.54             0.976902560354851 109.546307360995 
! Gamma         !               0                0                
! Port Impedance50               0                

1.545            0.975833306184873 109.032150719918 
! Gamma         !               0                0                
! Port Impedance50               0                

1.55             0.974687635928125 108.504267534725 
! Gamma         !               0                0                
! Port Impedance50               0                

1.555            0.973458433353632 107.961725526756 
! Gamma         !               0                0                
! Port Impedance50               0                

1.56             0.972137753712917 107.403508393389 
! Gamma         !               0                0                
! Port Impedance50               0                

1.565            0.970716708051559 106.828506368292 
! Gamma         !               0                0                
! Port Impedance50               0                

1.57             0.969185328712038 106.235505519119 
! Gamma         !               0                0                
! Port Impedance50               0                

1.575            0.967532412551054 105.623175588646 
! Gamma         !               0                0                
! Port Impedance50               0                

1.58             0.965745337679389 104.990056152158 
! Gamma         !               0                0                
! Port Impedance50               0                

1.585            0.963809848657199 104.334540824716 
! Gamma         !               0                0                
! Port Impedance50               0                

1.59             0.961709804004359 103.6548592055   
! Gamma         !               0                0                
! Port Impedance50               0                

1.595            0.959426878567109 102.949056191538 
! Gamma         !               0                0                
! Port Impedance50               0                

1.6              0.956940211660582 102.21496822827  
! Gamma         !               0                0                
! Port Impedance50               0                

1.605            0.954225989909972 101.450195987828 
! Gamma         !               0                0                
! Port Impedance50               0                

1.61             0.951256951253625 100.652072875956 
! Gamma         !               0                0                
! Port Impedance50               0                

1.615            0.94800179354302 99.817628663028  
! Gamma         !               0                0                
! Port Impedance50               0                

1.62             0.944424467451401 98.9435474120579 
! Gamma         !               0                0                
! Port Impedance50               0                

1.625            0.94048332883795 98.0261187353064 
! Gamma         !               0                0                
! Port Impedance50               0                

1.63             0.936130120144404 97.0611812505355 
! Gamma         !               0                0                
! Port Impedance50               0                

1.635            0.93130874365501 96.0440569292222 
! Gamma         !               0                0                
! Port Impedance50               0                

1.64             0.925953781373594 94.969474836074  
! Gamma         !               0                0                
! Port Impedance50               0                

1.645            0.919988706767854 93.8314825610929 
! Gamma         !               0                0                
! Port Impedance50               0                

1.65             0.91332372274929 92.6233434594863 
! Gamma         !               0                0                
! Port Impedance50               0                

1.655            0.905853148337701 91.3374176713451 
! Gamma         !               0                0                
! Port Impedance50               0                

1.66             0.89745226439411 89.9650248429563 
! Gamma         !               0                0                
! Port Impedance50               0                

1.665            0.887973518477809 88.496286596215  
! Gamma         !               0                0                
! Port Impedance50               0                

1.67             0.877241983894926 86.9199472175182 
! Gamma         !               0                0                
! Port Impedance50               0                

1.675            0.865049974858507 85.2231719492208 
! Gamma         !               0                0                
! Port Impedance50               0                

1.68             0.851150749623511 83.3913239274917 
! Gamma         !               0                0                
! Port Impedance50               0                

1.685            0.835251305266802 81.4077235589932 
! Gamma         !               0                0                
! Port Impedance50               0                

1.69             0.817004411641632 79.2533983334522 
! Gamma         !               0                0                
! Port Impedance50               0                

1.695            0.796000294391778 76.9068369531806 
! Gamma         !               0                0                
! Port Impedance50               0                

1.7              0.771758824975774 74.343768817726  
! Gamma         !               0                0                
! Port Impedance50               0                

1.705            0.743723797734996 71.5369960902366 
! Gamma         !               0                0                
! Port Impedance50               0                

1.71             0.711261966460345 68.4563038596827 
! Gamma         !               0                0                
! Port Impedance50               0                

1.715            0.67367103519434 65.0684460156861 
! Gamma         !               0                0                
! Port Impedance50               0                

1.72             0.630202666897465 61.3371048810404 
! Gamma         !               0                0                
! Port Impedance50               0                

1.725            0.580108365439531 57.2224385794974 
! Gamma         !               0                0                
! Port Impedance50               0                

1.73             0.522716764320231 52.6790679981782 
! Gamma         !               0                0                
! Port Impedance50               0                

1.735            0.457548619133401 47.649266949372  
! Gamma         !               0                0                
! Port Impedance50               0                

1.74             0.384468732338628 42.0418210238422 
! Gamma         !               0                0                
! Port Impedance50               0                

1.745            0.30386353678021 35.6643060362688 
! Gamma         !               0                0                
! Port Impedance50               0                

1.75             0.216839489194174 27.9679842609867 
! Gamma         !               0                0                
! Port Impedance50               0                

1.755            0.125635050275313 16.6400361376288 
! Gamma         !               0                0                
! Port Impedance50               0                

1.76             0.0394082552692191 -23.0336637877551 
! Gamma         !               0                0                
! Port Impedance50               0                

1.765            0.074785383595334 -138.892511945183 
! Gamma         !               0                0                
! Port Impedance50               0                

1.77             0.164951057112156 -157.229769258353 
! Gamma         !               0                0                
! Port Impedance50               0                

1.775            0.252873891575183 -166.258958273449 
! Gamma         !               0                0                
! Port Impedance50               0                

1.78             0.334953849140384 -173.110141167856 
! Gamma         !               0                0                
! Port Impedance50               0                

1.785            0.409824015234417 -178.942289865921 
! Gamma         !               0                0                
! Port Impedance50               0                

1.79             0.476959916847489 175.901313257699 
! Gamma         !               0                0                
! Port Impedance50               0                

1.795            0.536398470903581 171.277944481639 
! Gamma         !               0                0                
! Port Impedance50               0                

1.8              0.588546900233955 167.108485686336 
! Gamma         !               0                0                
! Port Impedance50               0                

1.805            0.63402593841    163.33738843315  
! Gamma         !               0                0                
! Port Impedance50               0                

1.81             0.673550765209908 159.919457293388 
! Gamma         !               0                0                
! Port Impedance50               0                

1.815            0.707849743538763 156.815315682583 
! Gamma         !               0                0                
! Port Impedance50               0                

1.82             0.737614956544673 153.989846721386 
! Gamma         !               0                0                
! Port Impedance50               0                

1.825            0.763476240937039 151.411624233481 
! Gamma         !               0                0                
! Port Impedance50               0                

1.83             0.785990910262165 149.052627855284 
! Gamma         !               0                0                
! Port Impedance50               0                

1.835            0.805643038134491 146.888005961806 
! Gamma         !               0                0                
! Port Impedance50               0                

1.84             0.822847993893805 144.895823305355 
! Gamma         !               0                0                
! Port Impedance50               0                

1.845            0.837959441384729 143.05678971901  
! Gamma         !               0                0                
! Port Impedance50               0                

1.85             0.851277119343102 141.353982358996 
! Gamma         !               0                0                
! Port Impedance50               0                

1.855            0.863054465027387 139.772574708889 
! Gamma         !               0                0                
! Port Impedance50               0                

1.86             0.873505610930719 138.299581908255 
! Gamma         !               0                0                